<?xml version="1.0" encoding="UTF-8"?>

<!-- generated on 2025-12-05T22:16:47.910731+00:00 by Eclipse SUMO sumo v1_25_0+0150-04664dcec11
<sumoConfiguration xmlns:xsi="http://www.w3.org/2001/XMLSchema-instance" xsi:noNamespaceSchemaLocation="http://sumo.dlr.de/xsd/sumoConfiguration.xsd">

    <input>
        <net-file value="osm.net.xml.gz"/>
        <route-files value="osm.bus.trips.xml,osm.passenger.trips.xml,osm.truck.trips.xml"/>
        <additional-files value="osm.poly.xml.gz,output.add.xml"/>
    </input>

    <output>
        <fcd-output value="fcd.xml"/>
        <tripinfo-output value="tripinfos.xml"/>
        <statistic-output value="stats.xml"/>
    </output>

    <processing>
        <ignore-route-errors value="true"/>
        <tls.actuated.jam-threshold value="30"/>
    </processing>

    <routing>
        <device.rerouting.adaptation-steps value="18"/>
        <device.rerouting.adaptation-interval value="10"/>
    </routing>

    <report>
        <verbose value="true"/>
        <duration-log.statistics value="true"/>
        <no-step-log value="true"/>
    </report>

    <gui_only>
        <gui-settings-file value="osm.view.xml"/>
    </gui_only>

</sumoConfiguration>
-->

<meandata xmlns:xsi="http://www.w3.org/2001/XMLSchema-instance" xsi:noNamespaceSchemaLocation="http://sumo.dlr.de/xsd/meandata_file.xsd">
    <interval begin="0.00" end="1911.00" id="wizard_example">
        <edge id="-1022155549#2" sampledSeconds="0.00" departed="0" arrived="0" entered="0" left="0" laneChangedFrom="0" laneChangedTo="0"/>
        <edge id="-1109043801" sampledSeconds="0.00" departed="0" arrived="0" entered="0" left="0" laneChangedFrom="0" laneChangedTo="0"/>
        <edge id="-1109043802" sampledSeconds="26.26" traveltime="7.65" overlapTraveltime="8.75" density="0.19" overlapDensity="0.22" laneDensity="0.19" occupancy="0.14" waitingTime="0.00" timeLoss="1.30" speed="7.87" speedRelative="0.94" departed="0" arrived="0" entered="3" left="3" laneChangedFrom="0" laneChangedTo="0" flow="5.65"/>
        <edge id="-1109043803" sampledSeconds="21.29" traveltime="10.42" overlapTraveltime="11.45" density="0.12" overlapDensity="0.14" laneDensity="0.12" occupancy="0.08" waitingTime="0.00" timeLoss="1.91" speed="7.57" speedRelative="0.91" departed="2" arrived="0" entered="0" left="2" laneChangedFrom="0" laneChangedTo="0" flow="3.48"/>
        <edge id="-1109043805" sampledSeconds="21.64" traveltime="10.08" overlapTraveltime="10.82" density="0.13" overlapDensity="0.14" laneDensity="0.13" occupancy="0.08" waitingTime="0.00" timeLoss="2.51" speed="8.04" speedRelative="0.96" departed="0" arrived="0" entered="2" left="2" laneChangedFrom="0" laneChangedTo="0" flow="3.77"/>
        <edge id="-1109043806" sampledSeconds="7.13" traveltime="7.10" overlapTraveltime="8.69" density="0.05" overlapDensity="0.07" laneDensity="0.05" occupancy="0.07" waitingTime="0.00" timeLoss="0.43" speed="7.74" speedRelative="0.93" departed="1" arrived="0" entered="0" left="1" laneChangedFrom="0" laneChangedTo="0" flow="1.47"/>
        <edge id="-1111578984#1" sampledSeconds="36.96" traveltime="12.13" overlapTraveltime="13.19" density="0.19" overlapDensity="0.21" laneDensity="0.19" occupancy="0.13" waitingTime="0.00" timeLoss="3.54" speed="7.47" speedRelative="0.90" departed="3" arrived="0" entered="0" left="3" laneChangedFrom="0" laneChangedTo="0" flow="5.25"/>
        <edge id="-11172810#0" sampledSeconds="0.00" departed="0" arrived="0" entered="0" left="0" laneChangedFrom="0" laneChangedTo="0"/>
        <edge id="-11172810#3" sampledSeconds="15.22" traveltime="14.41" overlapTraveltime="15.22" density="0.06" overlapDensity="0.06" laneDensity="0.06" occupancy="0.04" waitingTime="0.00" timeLoss="0.45" speed="8.60" speedRelative="1.03" departed="0" arrived="1" entered="1" left="0" laneChangedFrom="0" laneChangedTo="0" flow="1.88"/>
        <edge id="-1118306629#0" sampledSeconds="49.87" traveltime="15.77" overlapTraveltime="16.87" density="0.20" overlapDensity="0.21" laneDensity="0.20" occupancy="0.14" waitingTime="0.00" timeLoss="3.44" speed="7.66" speedRelative="0.92" departed="0" arrived="1" entered="3" left="2" laneChangedFrom="0" laneChangedTo="0" flow="5.65"/>
        <edge id="-1118306629#1" sampledSeconds="12.98" traveltime="2.53" overlapTraveltime="3.55" density="0.27" overlapDensity="0.35" laneDensity="0.27" occupancy="0.21" waitingTime="0.00" timeLoss="0.96" speed="7.71" speedRelative="0.93" departed="0" arrived="2" entered="4" left="2" laneChangedFrom="0" laneChangedTo="0" flow="7.54"/>
        <edge id="-1138193801" sampledSeconds="15.02" traveltime="0.20" overlapTraveltime="1.19" density="0.92" overlapDensity="4.88" laneDensity="0.92" occupancy="0.65" waitingTime="0.00" timeLoss="3.55" speed="8.45" speedRelative="0.61" departed="0" arrived="0" entered="14" left="14" laneChangedFrom="0" laneChangedTo="0" flow="26.37"/>
        <edge id="-11520784" sampledSeconds="48.12" traveltime="15.56" overlapTraveltime="16.04" density="0.13" overlapDensity="0.13" laneDensity="0.13" occupancy="0.08" waitingTime="0.00" timeLoss="4.83" speed="12.44" speedRelative="0.90" departed="0" arrived="0" entered="3" left="3" laneChangedFrom="0" laneChangedTo="0" flow="5.65"/>
        <edge id="-11662794#0" sampledSeconds="64.54" traveltime="4.35" overlapTraveltime="5.39" density="1.05" overlapDensity="1.31" laneDensity="1.05" occupancy="0.69" waitingTime="6.00" timeLoss="21.22" speed="6.01" speedRelative="0.72" departed="0" arrived="1" entered="12" left="11" laneChangedFrom="0" laneChangedTo="0" flow="22.61"/>
        <edge id="-11662794#2" sampledSeconds="128.81" traveltime="11.93" overlapTraveltime="12.89" density="0.67" overlapDensity="0.73" laneDensity="0.67" occupancy="0.46" waitingTime="0.00" timeLoss="10.29" speed="7.73" speedRelative="0.93" departed="0" arrived="0" entered="10" left="10" laneChangedFrom="0" laneChangedTo="0" flow="18.84"/>
        <edge id="-11662794#3" sampledSeconds="68.25" traveltime="6.54" overlapTraveltime="7.61" density="0.63" overlapDensity="0.73" laneDensity="0.63" occupancy="0.45" waitingTime="0.00" timeLoss="8.24" speed="7.42" speedRelative="0.89" departed="0" arrived="0" entered="9" left="9" laneChangedFrom="0" laneChangedTo="0" flow="16.95"/>
        <edge id="-11663192#2" sampledSeconds="118.23" traveltime="58.24" overlapTraveltime="59.13" density="0.13" overlapDensity="0.13" laneDensity="0.13" occupancy="0.08" waitingTime="0.00" timeLoss="7.33" speed="7.91" speedRelative="0.95" departed="0" arrived="1" entered="2" left="1" laneChangedFrom="0" laneChangedTo="0" flow="3.77"/>
        <edge id="-11663192#3" sampledSeconds="74.00" traveltime="13.19" overlapTraveltime="14.76" density="0.63" overlapDensity="0.70" laneDensity="0.63" occupancy="0.34" waitingTime="27.00" timeLoss="36.05" speed="4.09" speedRelative="0.49" departed="0" arrived="0" entered="5" left="5" laneChangedFrom="0" laneChangedTo="0" flow="9.42"/>
        <edge id="-11936521#0" sampledSeconds="210.08" traveltime="104.75" overlapTraveltime="105.66" density="0.13" overlapDensity="0.13" laneDensity="0.13" occupancy="0.10" waitingTime="0.00" timeLoss="7.88" speed="7.78" speedRelative="0.93" departed="0" arrived="2" entered="2" left="0" laneChangedFrom="0" laneChangedTo="0" flow="3.77"/>
        <edge id="-11936521#1" sampledSeconds="246.14" traveltime="40.12" overlapTraveltime="41.03" density="0.38" overlapDensity="0.39" laneDensity="0.38" occupancy="0.22" waitingTime="0.00" timeLoss="16.47" speed="8.25" speedRelative="0.99" departed="0" arrived="0" entered="6" left="6" laneChangedFrom="0" laneChangedTo="0" flow="11.30"/>
        <edge id="-11936576#2" sampledSeconds="68.22" traveltime="10.77" overlapTraveltime="11.37" density="0.27" overlapDensity="0.29" laneDensity="0.27" occupancy="0.14" waitingTime="0.00" timeLoss="14.48" speed="11.28" speedRelative="0.81" departed="0" arrived="1" entered="6" left="5" laneChangedFrom="0" laneChangedTo="0" flow="11.30"/>
        <edge id="-11936782" sampledSeconds="21.79" traveltime="9.98" overlapTraveltime="10.90" density="0.12" overlapDensity="0.13" laneDensity="0.12" occupancy="0.08" waitingTime="0.00" timeLoss="1.30" speed="8.33" speedRelative="1.00" departed="0" arrived="0" entered="2" left="2" laneChangedFrom="0" laneChangedTo="0" flow="3.77"/>
        <edge id="-11936804#2" sampledSeconds="0.00" departed="0" arrived="0" entered="0" left="0" laneChangedFrom="0" laneChangedTo="0"/>
        <edge id="-11936870#0" sampledSeconds="613.04" traveltime="18.38" overlapTraveltime="19.77" density="2.37" overlapDensity="2.55" laneDensity="2.37" occupancy="1.68" waitingTime="6.00" timeLoss="105.53" speed="6.71" speedRelative="0.81" departed="0" arrived="0" entered="31" left="31" laneChangedFrom="0" laneChangedTo="0" flow="58.40"/>
        <edge id="-11936870#3" sampledSeconds="261.64" traveltime="17.77" overlapTraveltime="18.68" density="0.97" overlapDensity="1.02" laneDensity="0.97" occupancy="0.67" waitingTime="0.00" timeLoss="16.83" speed="7.59" speedRelative="0.91" departed="0" arrived="0" entered="14" left="14" laneChangedFrom="0" laneChangedTo="0" flow="26.37"/>
        <edge id="-11936870#7" sampledSeconds="247.68" traveltime="18.09" overlapTraveltime="19.04" density="0.91" overlapDensity="0.96" laneDensity="0.91" occupancy="0.64" waitingTime="0.00" timeLoss="16.62" speed="7.50" speedRelative="0.90" departed="0" arrived="0" entered="13" left="13" laneChangedFrom="0" laneChangedTo="0" flow="24.49"/>
        <edge id="-12209187#1" sampledSeconds="6.95" traveltime="6.19" overlapTraveltime="6.95" density="0.06" overlapDensity="0.07" laneDensity="0.06" occupancy="0.03" waitingTime="0.00" timeLoss="0.94" speed="8.09" speedRelative="0.97" departed="0" arrived="0" entered="1" left="1" laneChangedFrom="0" laneChangedTo="0" flow="1.88"/>
        <edge id="-12209187#13" sampledSeconds="112.66" traveltime="55.46" overlapTraveltime="57.31" density="0.14" overlapDensity="0.14" laneDensity="0.14" occupancy="0.13" waitingTime="0.00" timeLoss="8.54" speed="7.59" speedRelative="0.91" departed="1" arrived="1" entered="1" left="1" laneChangedFrom="0" laneChangedTo="0" flow="3.74"/>
        <edge id="-12209187#2" sampledSeconds="10.70" traveltime="10.12" overlapTraveltime="10.70" density="0.06" overlapDensity="0.06" laneDensity="0.06" occupancy="0.03" waitingTime="0.00" timeLoss="0.79" speed="8.91" speedRelative="1.07" departed="0" arrived="0" entered="1" left="1" laneChangedFrom="0" laneChangedTo="0" flow="1.88"/>
        <edge id="-12209187#3" sampledSeconds="11.50" traveltime="10.88" overlapTraveltime="13.04" density="0.09" overlapDensity="0.11" laneDensity="0.09" occupancy="0.07" waitingTime="0.00" timeLoss="4.86" speed="4.67" speedRelative="0.56" departed="1" arrived="0" entered="0" left="1" laneChangedFrom="0" laneChangedTo="0" flow="1.63"/>
        <edge id="-12212653#1" sampledSeconds="0.00" departed="0" arrived="0" entered="0" left="0" laneChangedFrom="0" laneChangedTo="0"/>
        <edge id="-12212653#2" sampledSeconds="0.00" departed="0" arrived="0" entered="0" left="0" laneChangedFrom="0" laneChangedTo="0"/>
        <edge id="-1230759208#0" sampledSeconds="5.31" traveltime="4.97" overlapTraveltime="5.62" density="0.07" overlapDensity="0.07" laneDensity="0.07" occupancy="0.03" waitingTime="0.00" timeLoss="0.66" speed="7.53" speedRelative="0.90" departed="0" arrived="1" entered="1" left="0" laneChangedFrom="0" laneChangedTo="0" flow="1.88"/>
        <edge id="-1230759208#1" sampledSeconds="6.11" traveltime="6.09" overlapTraveltime="6.80" density="0.06" overlapDensity="0.07" laneDensity="0.06" occupancy="0.03" waitingTime="0.00" timeLoss="0.91" speed="7.40" speedRelative="0.89" departed="1" arrived="0" entered="0" left="1" laneChangedFrom="0" laneChangedTo="0" flow="1.67"/>
        <edge id="-1230769300" sampledSeconds="0.00" departed="0" arrived="0" entered="0" left="0" laneChangedFrom="0" laneChangedTo="0"/>
        <edge id="-123266665#5" sampledSeconds="59.00" traveltime="18.86" overlapTraveltime="19.67" density="0.13" overlapDensity="0.14" laneDensity="0.13" occupancy="0.09" waitingTime="0.00" timeLoss="8.87" speed="11.51" speedRelative="0.83" departed="0" arrived="1" entered="3" left="2" laneChangedFrom="0" laneChangedTo="0" flow="5.65"/>
        <edge id="-1253922946" sampledSeconds="0.00" departed="0" arrived="0" entered="0" left="0" laneChangedFrom="0" laneChangedTo="0"/>
        <edge id="-1259152787" sampledSeconds="0.00" departed="0" arrived="0" entered="0" left="0" laneChangedFrom="0" laneChangedTo="0"/>
        <edge id="-1259152788#0" sampledSeconds="19.96" traveltime="6.20" overlapTraveltime="7.36" density="0.29" overlapDensity="0.35" laneDensity="0.29" occupancy="0.17" waitingTime="0.00" timeLoss="8.92" speed="4.88" speedRelative="0.44" departed="2" arrived="0" entered="1" left="3" laneChangedFrom="0" laneChangedTo="0" flow="5.02"/>
        <edge id="-1259152788#1" sampledSeconds="0.00" departed="0" arrived="0" entered="0" left="0" laneChangedFrom="0" laneChangedTo="0"/>
        <edge id="-1259152788#2" sampledSeconds="0.00" departed="0" arrived="0" entered="0" left="0" laneChangedFrom="0" laneChangedTo="0"/>
        <edge id="-1259199236" sampledSeconds="29.00" traveltime="8.89" overlapTraveltime="10.37" density="0.13" overlapDensity="0.15" laneDensity="0.13" occupancy="0.10" waitingTime="0.00" timeLoss="6.01" speed="10.67" speedRelative="0.77" departed="3" arrived="0" entered="0" left="3" laneChangedFrom="0" laneChangedTo="0" flow="5.24"/>
        <edge id="-1259280539" sampledSeconds="10.25" traveltime="4.39" overlapTraveltime="5.20" density="0.14" overlapDensity="0.16" laneDensity="0.14" occupancy="0.08" waitingTime="0.00" timeLoss="0.55" speed="7.43" speedRelative="0.89" departed="0" arrived="2" entered="2" left="0" laneChangedFrom="0" laneChangedTo="0" flow="3.77"/>
        <edge id="-1259290401" sampledSeconds="0.00" departed="0" arrived="0" entered="0" left="0" laneChangedFrom="0" laneChangedTo="0"/>
        <edge id="-1259291342" sampledSeconds="0.00" departed="0" arrived="0" entered="0" left="0" laneChangedFrom="0" laneChangedTo="0"/>
        <edge id="-1259292218" sampledSeconds="0.00" departed="0" arrived="0" entered="0" left="0" laneChangedFrom="0" laneChangedTo="0"/>
        <edge id="-1259293193" sampledSeconds="0.00" departed="0" arrived="0" entered="0" left="0" laneChangedFrom="0" laneChangedTo="0"/>
        <edge id="-1259294537" sampledSeconds="9.90" traveltime="3.26" overlapTraveltime="4.12" density="0.15" overlapDensity="0.20" laneDensity="0.15" occupancy="0.11" waitingTime="0.00" timeLoss="0.80" speed="7.95" speedRelative="0.95" departed="3" arrived="0" entered="0" left="3" laneChangedFrom="0" laneChangedTo="0" flow="4.26"/>
        <edge id="-126879329" sampledSeconds="47.92" traveltime="14.66" overlapTraveltime="16.43" density="0.28" overlapDensity="0.32" laneDensity="0.28" occupancy="0.21" waitingTime="8.00" timeLoss="18.43" speed="5.24" speedRelative="0.63" departed="1" arrived="0" entered="2" left="3" laneChangedFrom="0" laneChangedTo="0" flow="5.48"/>
        <edge id="-126879330" sampledSeconds="75.42" traveltime="37.00" overlapTraveltime="38.17" density="0.13" overlapDensity="0.14" laneDensity="0.13" occupancy="0.09" waitingTime="0.00" timeLoss="5.52" speed="7.84" speedRelative="0.94" departed="1" arrived="0" entered="1" left="2" laneChangedFrom="0" laneChangedTo="0" flow="3.72"/>
        <edge id="-1306610142" sampledSeconds="0.00" departed="0" arrived="0" entered="0" left="0" laneChangedFrom="0" laneChangedTo="0"/>
        <edge id="-131725491" sampledSeconds="19.00" traveltime="5.13" overlapTraveltime="6.38" density="0.21" overlapDensity="0.26" laneDensity="0.21" occupancy="0.18" waitingTime="0.00" timeLoss="1.85" speed="7.29" speedRelative="0.87" departed="0" arrived="0" entered="3" left="3" laneChangedFrom="0" laneChangedTo="0" flow="5.65"/>
        <edge id="-1318083017#0" sampledSeconds="0.00" departed="0" arrived="0" entered="0" left="0" laneChangedFrom="0" laneChangedTo="0"/>
        <edge id="-1318083017#1" sampledSeconds="0.00" departed="0" arrived="0" entered="0" left="0" laneChangedFrom="0" laneChangedTo="0"/>
        <edge id="-13499977#0" sampledSeconds="164.52" traveltime="6.31" overlapTraveltime="6.87" density="1.02" overlapDensity="1.11" laneDensity="1.02" occupancy="0.75" waitingTime="0.00" timeLoss="20.64" speed="12.43" speedRelative="0.90" departed="0" arrived="1" entered="24" left="23" laneChangedFrom="0" laneChangedTo="0" flow="45.21"/>
        <edge id="-13499977#1" sampledSeconds="283.06" traveltime="15.20" overlapTraveltime="15.74" density="0.71" overlapDensity="0.73" laneDensity="0.71" occupancy="0.51" waitingTime="0.00" timeLoss="19.19" speed="13.31" speedRelative="0.96" departed="0" arrived="1" entered="18" left="17" laneChangedFrom="0" laneChangedTo="0" flow="33.91"/>
        <edge id="-13499977#2" sampledSeconds="229.31" traveltime="12.96" overlapTraveltime="13.54" density="0.64" overlapDensity="0.67" laneDensity="0.64" occupancy="0.47" waitingTime="0.00" timeLoss="8.31" speed="13.84" speedRelative="1.00" departed="0" arrived="1" entered="17" left="16" laneChangedFrom="0" laneChangedTo="0" flow="32.03"/>
        <edge id="-13503928" sampledSeconds="913.83" traveltime="152.19" overlapTraveltime="153.08" density="0.39" overlapDensity="0.39" laneDensity="0.39" occupancy="0.24" waitingTime="0.00" timeLoss="73.08" speed="8.10" speedRelative="0.97" departed="6" arrived="0" entered="0" left="6" laneChangedFrom="0" laneChangedTo="0" flow="11.25"/>
        <edge id="-13504575" sampledSeconds="120.32" traveltime="4.90" overlapTraveltime="6.05" density="1.57" overlapDensity="1.92" laneDensity="1.57" occupancy="1.14" waitingTime="9.00" timeLoss="26.80" speed="6.61" speedRelative="0.79" departed="0" arrived="1" entered="20" left="19" laneChangedFrom="0" laneChangedTo="0" flow="37.68"/>
        <edge id="-13506243#0" sampledSeconds="668.28" traveltime="94.63" overlapTraveltime="95.58" density="0.30" overlapDensity="0.30" laneDensity="0.30" occupancy="0.17" waitingTime="0.00" timeLoss="35.89" speed="12.19" speedRelative="0.88" departed="1" arrived="5" entered="6" left="2" laneChangedFrom="0" laneChangedTo="0" flow="13.18"/>
        <edge id="-13506243#1" sampledSeconds="20.54" traveltime="3.64" overlapTraveltime="4.10" density="0.22" overlapDensity="0.25" laneDensity="0.22" occupancy="0.13" waitingTime="0.00" timeLoss="1.85" speed="11.87" speedRelative="0.85" departed="0" arrived="0" entered="5" left="5" laneChangedFrom="0" laneChangedTo="0" flow="9.42"/>
        <edge id="-13506539#2" sampledSeconds="22.49" traveltime="21.87" overlapTraveltime="22.49" density="0.07" overlapDensity="0.07" laneDensity="0.07" occupancy="0.03" waitingTime="0.00" timeLoss="2.51" speed="7.60" speedRelative="0.91" departed="0" arrived="0" entered="1" left="1" laneChangedFrom="0" laneChangedTo="0" flow="1.88"/>
        <edge id="-13506539#3" sampledSeconds="0.00" departed="0" arrived="0" entered="0" left="0" laneChangedFrom="0" laneChangedTo="0"/>
        <edge id="-13506539#5" sampledSeconds="0.00" departed="0" arrived="0" entered="0" left="0" laneChangedFrom="0" laneChangedTo="0"/>
        <edge id="-13506941#5" sampledSeconds="0.00" departed="0" arrived="0" entered="0" left="0" laneChangedFrom="0" laneChangedTo="0"/>
        <edge id="-13507291#0" sampledSeconds="30.23" traveltime="14.81" overlapTraveltime="15.21" density="0.09" overlapDensity="0.09" laneDensity="0.09" occupancy="0.04" waitingTime="0.00" timeLoss="2.20" speed="12.10" speedRelative="0.87" departed="0" arrived="2" entered="2" left="0" laneChangedFrom="0" laneChangedTo="0" flow="3.77"/>
        <edge id="-13507291#5" sampledSeconds="36.32" traveltime="17.12" overlapTraveltime="18.16" density="0.09" overlapDensity="0.09" laneDensity="0.09" occupancy="0.08" waitingTime="0.00" timeLoss="3.77" speed="11.49" speedRelative="0.83" departed="0" arrived="0" entered="2" left="2" laneChangedFrom="0" laneChangedTo="0" flow="3.77"/>
        <edge id="-13507608#1" sampledSeconds="0.00" departed="0" arrived="0" entered="0" left="0" laneChangedFrom="0" laneChangedTo="0"/>
        <edge id="-13685166" sampledSeconds="17.00" traveltime="7.67" overlapTraveltime="8.50" density="0.15" overlapDensity="0.16" laneDensity="0.15" occupancy="0.09" waitingTime="0.00" timeLoss="1.40" speed="7.19" speedRelative="0.86" departed="0" arrived="1" entered="2" left="1" laneChangedFrom="0" laneChangedTo="0" flow="3.77"/>
        <edge id="-13685209#0" sampledSeconds="4.64" traveltime="4.07" overlapTraveltime="4.80" density="0.06" overlapDensity="0.07" laneDensity="0.06" occupancy="0.04" waitingTime="0.00" timeLoss="1.58" speed="8.79" speedRelative="0.63" departed="0" arrived="1" entered="1" left="0" laneChangedFrom="0" laneChangedTo="0" flow="1.88"/>
        <edge id="-13685209#1" sampledSeconds="2.96" traveltime="2.03" overlapTraveltime="2.96" density="0.08" overlapDensity="0.11" laneDensity="0.08" occupancy="0.05" waitingTime="0.00" timeLoss="0.81" speed="7.04" speedRelative="0.51" departed="0" arrived="0" entered="1" left="1" laneChangedFrom="0" laneChangedTo="0" flow="1.88"/>
        <edge id="-13685209#2" sampledSeconds="0.00" departed="0" arrived="0" entered="0" left="0" laneChangedFrom="0" laneChangedTo="0"/>
        <edge id="-13685330#0" sampledSeconds="12.56" traveltime="11.93" overlapTraveltime="12.56" density="0.04" overlapDensity="0.05" laneDensity="0.04" occupancy="0.02" waitingTime="0.00" timeLoss="2.15" speed="11.87" speedRelative="0.85" departed="0" arrived="0" entered="1" left="1" laneChangedFrom="0" laneChangedTo="0" flow="1.88"/>
        <edge id="-13685330#1" sampledSeconds="0.00" departed="0" arrived="0" entered="0" left="0" laneChangedFrom="0" laneChangedTo="0"/>
        <edge id="-13685443#0" sampledSeconds="34.05" traveltime="10.56" overlapTraveltime="11.35" density="0.12" overlapDensity="0.12" laneDensity="0.12" occupancy="0.08" waitingTime="0.00" timeLoss="2.02" speed="13.13" speedRelative="0.95" departed="0" arrived="0" entered="3" left="3" laneChangedFrom="0" laneChangedTo="0" flow="5.65"/>
        <edge id="-13685443#3" sampledSeconds="62.34" traveltime="11.85" overlapTraveltime="12.46" density="0.21" overlapDensity="0.22" laneDensity="0.21" occupancy="0.12" waitingTime="0.00" timeLoss="5.63" speed="12.27" speedRelative="0.88" departed="0" arrived="0" entered="5" left="5" laneChangedFrom="0" laneChangedTo="0" flow="9.42"/>
        <edge id="-13685443#4" sampledSeconds="80.85" traveltime="10.37" overlapTraveltime="11.56" density="0.30" overlapDensity="0.34" laneDensity="0.30" occupancy="0.24" waitingTime="0.00" timeLoss="12.56" speed="11.45" speedRelative="0.82" departed="0" arrived="0" entered="7" left="7" laneChangedFrom="0" laneChangedTo="0" flow="13.19"/>
        <edge id="-13685443#5" sampledSeconds="80.45" traveltime="8.25" overlapTraveltime="8.94" density="0.36" overlapDensity="0.39" laneDensity="0.36" occupancy="0.27" waitingTime="0.00" timeLoss="5.24" speed="12.80" speedRelative="0.92" departed="0" arrived="0" entered="9" left="9" laneChangedFrom="0" laneChangedTo="0" flow="16.95"/>
        <edge id="-13685443#6" sampledSeconds="106.52" traveltime="3.78" overlapTraveltime="4.72" density="1.41" overlapDensity="1.76" laneDensity="1.41" occupancy="1.01" waitingTime="0.00" timeLoss="36.05" speed="8.24" speedRelative="0.59" departed="1" arrived="0" entered="22" left="23" laneChangedFrom="0" laneChangedTo="0" flow="42.61"/>
        <edge id="-13685443#7" sampledSeconds="26.92" traveltime="7.31" overlapTraveltime="8.96" density="0.16" overlapDensity="0.20" laneDensity="0.16" occupancy="0.16" waitingTime="0.00" timeLoss="10.33" speed="8.99" speedRelative="0.65" departed="0" arrived="0" entered="3" left="3" laneChangedFrom="0" laneChangedTo="0" flow="5.65"/>
        <edge id="-13685443#9" sampledSeconds="35.62" traveltime="17.76" overlapTraveltime="18.42" density="0.09" overlapDensity="0.09" laneDensity="0.09" occupancy="0.09" waitingTime="0.00" timeLoss="9.17" speed="11.18" speedRelative="0.80" departed="1" arrived="0" entered="1" left="2" laneChangedFrom="0" laneChangedTo="0" flow="3.65"/>
        <edge id="-13685497#0" sampledSeconds="22.67" traveltime="6.89" overlapTraveltime="7.56" density="0.12" overlapDensity="0.14" laneDensity="0.12" occupancy="0.06" waitingTime="0.00" timeLoss="2.10" speed="12.27" speedRelative="0.88" departed="0" arrived="0" entered="3" left="3" laneChangedFrom="0" laneChangedTo="0" flow="5.65"/>
        <edge id="-13685497#2" sampledSeconds="20.36" traveltime="4.65" overlapTraveltime="5.09" density="0.16" overlapDensity="0.17" laneDensity="0.16" occupancy="0.08" waitingTime="0.00" timeLoss="1.70" speed="13.00" speedRelative="0.94" departed="0" arrived="0" entered="4" left="4" laneChangedFrom="0" laneChangedTo="0" flow="7.54"/>
        <edge id="-13685497#3" sampledSeconds="21.16" traveltime="3.73" overlapTraveltime="4.24" density="0.20" overlapDensity="0.22" laneDensity="0.20" occupancy="0.11" waitingTime="0.00" timeLoss="1.51" speed="12.96" speedRelative="0.93" departed="0" arrived="0" entered="5" left="5" laneChangedFrom="0" laneChangedTo="0" flow="9.42"/>
        <edge id="-13685497#4" sampledSeconds="24.56" traveltime="4.51" overlapTraveltime="4.92" density="0.21" overlapDensity="0.22" laneDensity="0.21" occupancy="0.11" waitingTime="0.00" timeLoss="2.61" speed="12.76" speedRelative="0.92" departed="0" arrived="0" entered="5" left="5" laneChangedFrom="0" laneChangedTo="0" flow="9.42"/>
        <edge id="-13685497#5" sampledSeconds="29.69" traveltime="9.26" overlapTraveltime="9.90" density="0.14" overlapDensity="0.15" laneDensity="0.14" occupancy="0.07" waitingTime="0.00" timeLoss="7.26" speed="11.09" speedRelative="0.80" departed="0" arrived="0" entered="3" left="3" laneChangedFrom="0" laneChangedTo="0" flow="5.65"/>
        <edge id="-13685573#0" sampledSeconds="21.84" traveltime="21.69" overlapTraveltime="23.05" density="0.08" overlapDensity="0.09" laneDensity="0.08" occupancy="0.06" waitingTime="0.00" timeLoss="4.76" speed="5.97" speedRelative="0.72" departed="1" arrived="0" entered="0" left="1" laneChangedFrom="0" laneChangedTo="0" flow="1.78"/>
        <edge id="-13685573#1" sampledSeconds="30.33" traveltime="14.57" overlapTraveltime="15.37" density="0.14" overlapDensity="0.15" laneDensity="0.14" occupancy="0.08" waitingTime="0.00" timeLoss="2.58" speed="7.35" speedRelative="0.88" departed="0" arrived="2" entered="2" left="0" laneChangedFrom="0" laneChangedTo="0" flow="3.77"/>
        <edge id="-13685573#2" sampledSeconds="10.86" traveltime="4.61" overlapTraveltime="5.42" density="0.15" overlapDensity="0.17" laneDensity="0.15" occupancy="0.09" waitingTime="0.00" timeLoss="1.27" speed="7.10" speedRelative="0.85" departed="0" arrived="0" entered="2" left="2" laneChangedFrom="0" laneChangedTo="0" flow="3.77"/>
        <edge id="-13685573#3" sampledSeconds="0.00" departed="0" arrived="0" entered="0" left="0" laneChangedFrom="0" laneChangedTo="0"/>
        <edge id="-13685573#4" sampledSeconds="0.00" departed="0" arrived="0" entered="0" left="0" laneChangedFrom="0" laneChangedTo="0"/>
        <edge id="-13685573#5" sampledSeconds="53.53" traveltime="25.68" overlapTraveltime="27.32" density="0.15" overlapDensity="0.16" laneDensity="0.15" occupancy="0.11" waitingTime="0.00" timeLoss="7.85" speed="6.53" speedRelative="0.78" departed="1" arrived="0" entered="1" left="2" laneChangedFrom="0" laneChangedTo="0" flow="3.69"/>
        <edge id="-13685647#0" sampledSeconds="0.00" departed="0" arrived="0" entered="0" left="0" laneChangedFrom="0" laneChangedTo="0"/>
        <edge id="-13685647#1" sampledSeconds="0.00" departed="0" arrived="0" entered="0" left="0" laneChangedFrom="0" laneChangedTo="0"/>
        <edge id="-13685647#2" sampledSeconds="6.35" traveltime="5.59" overlapTraveltime="6.35" density="0.09" overlapDensity="0.10" laneDensity="0.09" occupancy="0.04" waitingTime="0.00" timeLoss="1.11" speed="6.06" speedRelative="0.73" departed="0" arrived="0" entered="1" left="1" laneChangedFrom="0" laneChangedTo="0" flow="1.88"/>
        <edge id="-13685647#3" sampledSeconds="0.00" departed="0" arrived="0" entered="0" left="0" laneChangedFrom="0" laneChangedTo="0"/>
        <edge id="-13685736#0" sampledSeconds="20.29" traveltime="9.36" overlapTraveltime="10.15" density="0.15" overlapDensity="0.16" laneDensity="0.15" occupancy="0.08" waitingTime="0.00" timeLoss="2.12" speed="6.85" speedRelative="0.82" departed="0" arrived="0" entered="2" left="2" laneChangedFrom="0" laneChangedTo="0" flow="3.77"/>
        <edge id="-13685736#1" sampledSeconds="0.00" departed="0" arrived="0" entered="0" left="0" laneChangedFrom="0" laneChangedTo="0"/>
        <edge id="-13685736#3" sampledSeconds="0.00" departed="0" arrived="0" entered="0" left="0" laneChangedFrom="0" laneChangedTo="0"/>
        <edge id="-13685736#4" sampledSeconds="0.00" departed="0" arrived="0" entered="0" left="0" laneChangedFrom="0" laneChangedTo="0"/>
        <edge id="-13685736#5" sampledSeconds="0.00" departed="0" arrived="0" entered="0" left="0" laneChangedFrom="0" laneChangedTo="0"/>
        <edge id="-13685736#6" sampledSeconds="9.60" traveltime="4.34" overlapTraveltime="5.47" density="0.14" overlapDensity="0.16" laneDensity="0.14" occupancy="0.11" waitingTime="0.00" timeLoss="1.11" speed="7.23" speedRelative="0.87" departed="0" arrived="1" entered="2" left="1" laneChangedFrom="0" laneChangedTo="0" flow="3.77"/>
        <edge id="-13685736#7" sampledSeconds="0.00" departed="0" arrived="0" entered="0" left="0" laneChangedFrom="0" laneChangedTo="0"/>
        <edge id="-13685772#0" sampledSeconds="0.00" departed="0" arrived="0" entered="0" left="0" laneChangedFrom="0" laneChangedTo="0"/>
        <edge id="-13685772#2" sampledSeconds="0.00" departed="0" arrived="0" entered="0" left="0" laneChangedFrom="0" laneChangedTo="0"/>
        <edge id="-13685772#4" sampledSeconds="0.00" departed="0" arrived="0" entered="0" left="0" laneChangedFrom="0" laneChangedTo="0"/>