<?xml version="1.0" encoding="UTF-8"?>

<!-- generated on 2025-12-05T22:16:47.666514+00:00 by Eclipse SUMO sumo v1_25_0+0150-04664dcec11
<sumoConfiguration xmlns:xsi="http://www.w3.org/2001/XMLSchema-instance" xsi:noNamespaceSchemaLocation="http://sumo.dlr.de/xsd/sumoConfiguration.xsd">

    <input>
        <net-file value="osm.net.xml.gz"/>
        <route-files value="osm.bus.trips.xml,osm.passenger.trips.xml,osm.truck.trips.xml"/>
        <additional-files value="osm.poly.xml.gz,output.add.xml"/>
    </input>

    <output>
        <fcd-output value="fcd.xml"/>
        <tripinfo-output value="tripinfos.xml"/>
        <statistic-output value="stats.xml"/>
    </output>

    <processing>
        <ignore-route-errors value="true"/>
        <tls.actuated.jam-threshold value="30"/>
    </processing>

    <routing>
        <device.rerouting.adaptation-steps value="18"/>
        <device.rerouting.adaptation-interval value="10"/>
    </routing>

    <report>
        <verbose value="true"/>
        <duration-log.statistics value="true"/>
        <no-step-log value="true"/>
    </report>

    <gui_only>
        <gui-settings-file value="osm.view.xml"/>
    </gui_only>

</sumoConfiguration>
-->

<tripinfos xmlns:xsi="http://www.w3.org/2001/XMLSchema-instance" xsi:noNamespaceSchemaLocation="http://sumo.dlr.de/xsd/tripinfo_file.xsd">
    <tripinfo id="veh12" depart="28.00" departLane="-637206315#3_0" departPos="5.10" departSpeed="8.26" departDelay="0.72" arrival="113.00" arrivalLane="-13507291#0_0" arrivalPos="178.92" arrivalSpeed="13.25" duration="85.00" routeLength="764.47" waitingTime="0.00" waitingCount="0" stopTime="0.00" timeLoss="9.04" rerouteNo="1" devices="tripinfo_veh12 routing_veh12 fcd_veh12" vType="veh_passenger" speedFactor="0.99" vaporized=""/>
    <tripinfo id="veh26" depart="60.00" departLane="510503533#0_1" departPos="5.10" departSpeed="15.72" departDelay="0.88" arrival="141.00" arrivalLane="526891183_0" arrivalPos="329.27" arrivalSpeed="14.97" duration="81.00" routeLength="946.87" waitingTime="0.00" waitingCount="0" stopTime="0.00" timeLoss="6.16" rerouteNo="1" devices="tripinfo_veh26 routing_veh26 fcd_veh26" vType="veh_passenger" speedFactor="1.13" vaporized=""/>
    <tripinfo id="truck17" depart="58.00" departLane="448870865#0_0" departPos="7.20" departSpeed="0.00" departDelay="0.02" arrival="145.00" arrivalLane="318612424#0_0" arrivalPos="35.52" arrivalSpeed="13.85" duration="87.00" routeLength="866.71" waitingTime="0.00" waitingCount="0" stopTime="0.00" timeLoss="12.95" rerouteNo="1" devices="tripinfo_truck17 routing_truck17 fcd_truck17" vType="truck_truck" speedFactor="1.02" vaporized=""/>
    <tripinfo id="truck8" depart="28.00" departLane="13785770#10_0" departPos="7.20" departSpeed="0.00" departDelay="0.72" arrival="147.00" arrivalLane="637202566_0" arrivalPos="0.20" arrivalSpeed="8.71" duration="119.00" routeLength="1369.94" waitingTime="0.00" waitingCount="0" stopTime="0.00" timeLoss="18.80" rerouteNo="1" devices="tripinfo_truck8 routing_truck8 fcd_truck8" vType="truck_truck" speedFactor="1.06" vaporized=""/>
    <tripinfo id="veh1" depart="3.00" departLane="-13686254#1_0" departPos="5.10" departSpeed="0.00" departDelay="0.73" arrival="149.00" arrivalLane="125989143#2_0" arrivalPos="187.51" arrivalSpeed="12.55" duration="146.00" routeLength="1368.15" waitingTime="14.00" waitingCount="1" stopTime="0.00" timeLoss="32.52" rerouteNo="1" devices="tripinfo_veh1 routing_veh1 fcd_veh1" vType="veh_passenger" speedFactor="0.94" vaporized=""/>
    <tripinfo id="veh20" depart="46.00" departLane="-153007489#3_0" departPos="5.10" departSpeed="8.12" departDelay="0.53" arrival="150.00" arrivalLane="514290535_1" arrivalPos="3.42" arrivalSpeed="7.85" duration="104.00" routeLength="1164.45" waitingTime="0.00" waitingCount="0" stopTime="0.00" timeLoss="11.15" rerouteNo="1" devices="tripinfo_veh20 routing_veh20 fcd_veh20" vType="veh_passenger" speedFactor="0.97" vaporized=""/>
    <tripinfo id="bus10" depart="69.00" departLane="510503535#0_0" departPos="12.10" departSpeed="13.89" departDelay="0.79" arrival="161.00" arrivalLane="424279998_0" arrivalPos="132.70" arrivalSpeed="7.84" duration="92.00" routeLength="879.25" waitingTime="0.00" waitingCount="0" stopTime="0.00" timeLoss="5.36" rerouteNo="1" devices="tripinfo_bus10 routing_bus10 fcd_bus10" vType="bus_bus" speedFactor="1.00" vaporized=""/>
    <tripinfo id="truck0" depart="0.00" departLane="1096882474_1" departPos="7.10" departSpeed="0.00" departDelay="0.00" arrival="165.00" arrivalLane="13686004#1_0" arrivalPos="36.22" arrivalSpeed="8.08" duration="165.00" routeLength="1851.12" waitingTime="0.00" waitingCount="0" stopTime="0.00" timeLoss="26.75" rerouteNo="1" devices="tripinfo_truck0 routing_truck0 fcd_truck0" vType="truck_truck" speedFactor="1.01" vaporized=""/>
    <tripinfo id="bus2" depart="14.00" departLane="518078607#4_0" departPos="12.10" departSpeed="0.00" departDelay="0.36" arrival="169.00" arrivalLane="-13685736#6_0" arrivalPos="31.46" arrivalSpeed="7.94" duration="155.00" routeLength="1491.65" waitingTime="0.00" waitingCount="0" stopTime="0.00" timeLoss="16.81" rerouteNo="1" devices="tripinfo_bus2 routing_bus2 fcd_bus2" vType="bus_bus" speedFactor="1.00" vaporized=""/>
    <tripinfo id="truck1" depart="4.00" departLane="515102854#2_0" departPos="0.20" departSpeed="0.00" departDelay="0.59" arrival="186.00" arrivalLane="-186383236_0" arrivalPos="56.52" arrivalSpeed="8.62" duration="182.00" routeLength="2008.66" waitingTime="1.00" waitingCount="1" stopTime="0.00" timeLoss="22.36" rerouteNo="1" devices="tripinfo_truck1 routing_truck1 fcd_truck1" vType="truck_truck" speedFactor="1.04" vaporized=""/>
    <tripinfo id="bus6" depart="41.00" departLane="510503535#0_0" departPos="12.10" departSpeed="13.89" departDelay="0.07" arrival="186.00" arrivalLane="345632650_0" arrivalPos="267.60" arrivalSpeed="13.38" duration="145.00" routeLength="1342.41" waitingTime="0.00" waitingCount="0" stopTime="0.00" timeLoss="7.93" rerouteNo="1" devices="tripinfo_bus6 routing_bus6 fcd_bus6" vType="bus_bus" speedFactor="1.00" vaporized=""/>
    <tripinfo id="truck18" depart="62.00" departLane="-518078607#1_0" departPos="7.20" departSpeed="0.00" departDelay="0.61" arrival="191.00" arrivalLane="511770526#0_0" arrivalPos="16.02" arrivalSpeed="10.70" duration="129.00" routeLength="998.30" waitingTime="0.00" waitingCount="0" stopTime="0.00" timeLoss="14.65" rerouteNo="1" devices="tripinfo_truck18 routing_truck18 fcd_truck18" vType="truck_truck" speedFactor="1.03" vaporized=""/>
    <tripinfo id="veh4" depart="10.00" departLane="-1111578984#1_0" departPos="5.10" departSpeed="8.71" departDelay="0.91" arrival="199.00" arrivalLane="1259152788#1_0" arrivalPos="9.90" arrivalSpeed="11.54" duration="189.00" routeLength="2360.96" waitingTime="0.00" waitingCount="0" stopTime="0.00" timeLoss="14.49" rerouteNo="1" devices="tripinfo_veh4 routing_veh4 fcd_veh4" vType="veh_passenger" speedFactor="1.05" vaporized=""/>
    <tripinfo id="veh8" depart="19.00" departLane="-637206315#3_0" departPos="5.10" departSpeed="9.09" departDelay="0.81" arrival="208.00" arrivalLane="-13686416#1_0" arrivalPos="48.39" arrivalSpeed="14.30" duration="189.00" routeLength="2214.16" waitingTime="5.00" waitingCount="1" stopTime="0.00" timeLoss="33.97" rerouteNo="1" devices="tripinfo_veh8 routing_veh8 fcd_veh8" vType="veh_passenger" speedFactor="1.09" vaporized=""/>
    <tripinfo id="truck5" depart="18.00" departLane="13687272#0_0" departPos="7.20" departSpeed="0.00" departDelay="0.95" arrival="208.00" arrivalLane="-13686004#9_0" arrivalPos="46.53" arrivalSpeed="8.56" duration="190.00" routeLength="1610.19" waitingTime="6.00" waitingCount="2" stopTime="0.00" timeLoss="36.93" rerouteNo="1" devices="tripinfo_truck5 routing_truck5 fcd_truck5" vType="truck_truck" speedFactor="1.03" vaporized=""/>
    <tripinfo id="truck16" depart="55.00" departLane="-233491884_0" departPos="7.20" departSpeed="8.39" departDelay="0.43" arrival="209.00" arrivalLane="1259294537_0" arrivalPos="26.35" arrivalSpeed="8.14" duration="154.00" routeLength="1206.52" waitingTime="0.00" waitingCount="0" stopTime="0.00" timeLoss="9.24" rerouteNo="1" devices="tripinfo_truck16 routing_truck16 fcd_truck16" vType="truck_truck" speedFactor="1.01" vaporized=""/>
    <tripinfo id="veh33" depart="76.00" departLane="-1109043803_0" departPos="5.10" departSpeed="8.49" departDelay="0.97" arrival="211.00" arrivalLane="522486247#2_0" arrivalPos="631.22" arrivalSpeed="13.62" duration="135.00" routeLength="1663.53" waitingTime="0.00" waitingCount="0" stopTime="0.00" timeLoss="9.29" rerouteNo="1" devices="tripinfo_veh33 routing_veh33 fcd_veh33" vType="veh_passenger" speedFactor="1.02" vaporized=""/>
    <tripinfo id="truck24" depart="82.00" departLane="-515402758#0_0" departPos="7.20" departSpeed="0.00" departDelay="0.15" arrival="211.00" arrivalLane="513672313#2_1" arrivalPos="18.87" arrivalSpeed="13.33" duration="129.00" routeLength="1577.97" waitingTime="0.00" waitingCount="0" stopTime="0.00" timeLoss="18.34" rerouteNo="1" devices="tripinfo_truck24 routing_truck24 fcd_truck24" vType="truck_truck" speedFactor="1.05" vaporized=""/>
    <tripinfo id="truck12" depart="41.00" departLane="11662794#3_0" departPos="7.20" departSpeed="0.00" departDelay="0.07" arrival="213.00" arrivalLane="-1259280539_0" arrivalPos="32.59" arrivalSpeed="7.87" duration="172.00" routeLength="1360.06" waitingTime="28.00" waitingCount="3" stopTime="0.00" timeLoss="51.44" rerouteNo="1" devices="tripinfo_truck12 routing_truck12 fcd_truck12" vType="truck_truck" speedFactor="0.98" vaporized=""/>
    <tripinfo id="veh14" depart="32.00" departLane="514981229#1_0" departPos="5.10" departSpeed="0.00" departDelay="0.17" arrival="216.00" arrivalLane="1071928616#0_0" arrivalPos="61.45" arrivalSpeed="11.10" duration="184.00" routeLength="2022.84" waitingTime="0.00" waitingCount="0" stopTime="0.00" timeLoss="17.58" rerouteNo="1" devices="tripinfo_veh14 routing_veh14 fcd_veh14" vType="veh_passenger" speedFactor="0.88" vaporized=""/>
    <tripinfo id="truck25" depart="86.00" departLane="13686709#0_0" departPos="7.20" departSpeed="0.00" departDelay="0.74" arrival="223.00" arrivalLane="-13685209#0_0" arrivalPos="35.06" arrivalSpeed="10.10" duration="137.00" routeLength="1045.80" waitingTime="0.00" waitingCount="0" stopTime="0.00" timeLoss="14.65" rerouteNo="1" devices="tripinfo_truck25 routing_truck25 fcd_truck25" vType="truck_truck" speedFactor="0.96" vaporized=""/>
    <tripinfo id="truck10" depart="35.00" departLane="12220107#8_0" departPos="7.20" departSpeed="0.00" departDelay="0.89" arrival="226.00" arrivalLane="523043642#1_0" arrivalPos="91.20" arrivalSpeed="14.03" duration="191.00" routeLength="2360.63" waitingTime="3.00" waitingCount="1" stopTime="0.00" timeLoss="26.11" rerouteNo="1" devices="tripinfo_truck10 routing_truck10 fcd_truck10" vType="truck_truck" speedFactor="1.03" vaporized=""/>
    <tripinfo id="veh0" depart="0.00" departLane="-1230759208#1_0" departPos="5.10" departSpeed="8.83" departDelay="0.00" arrival="227.00" arrivalLane="345891996_0" arrivalPos="66.04" arrivalSpeed="8.09" duration="227.00" routeLength="2439.27" waitingTime="21.00" waitingCount="1" stopTime="0.00" timeLoss="42.39" rerouteNo="1" devices="tripinfo_veh0 routing_veh0 fcd_veh0" vType="veh_passenger" speedFactor="1.06" vaporized=""/>
    <tripinfo id="veh35" depart="80.00" departLane="523043642#1_0" departPos="5.10" departSpeed="0.00" departDelay="0.42" arrival="228.00" arrivalLane="515459441_1" arrivalPos="289.52" arrivalSpeed="15.66" duration="148.00" routeLength="1652.86" waitingTime="0.00" waitingCount="0" stopTime="0.00" timeLoss="36.01" rerouteNo="1" devices="tripinfo_veh35 routing_veh35 fcd_veh35" vType="veh_passenger" speedFactor="1.18" vaporized=""/>
    <tripinfo id="truck19" depart="65.00" departLane="514429104#0_1" departPos="7.20" departSpeed="0.00" departDelay="0.20" arrival="228.00" arrivalLane="-13499977#0_0" arrivalPos="77.83" arrivalSpeed="13.35" duration="163.00" routeLength="1558.09" waitingTime="3.00" waitingCount="1" stopTime="0.00" timeLoss="26.16" rerouteNo="1" devices="tripinfo_truck19 routing_truck19 fcd_truck19" vType="truck_truck" speedFactor="0.98" vaporized=""/>
    <tripinfo id="veh15" depart="35.00" departLane="518078608_0" departPos="5.10" departSpeed="0.00" departDelay="0.89" arrival="231.00" arrivalLane="13685772#5_0" arrivalPos="46.55" arrivalSpeed="7.06" duration="196.00" routeLength="2047.07" waitingTime="1.00" waitingCount="1" stopTime="0.00" timeLoss="24.06" rerouteNo="1" devices="tripinfo_veh15 routing_veh15 fcd_veh15" vType="veh_passenger" speedFactor="0.94" vaporized=""/>
    <tripinfo id="veh57" depart="130.00" departLane="431382226#0_0" departPos="5.10" departSpeed="0.00" departDelay="0.40" arrival="232.00" arrivalLane="-153007489#0_0" arrivalPos="77.39" arrivalSpeed="7.78" duration="102.00" routeLength="1065.50" waitingTime="0.00" waitingCount="0" stopTime="0.00" timeLoss="12.14" rerouteNo="1" devices="tripinfo_veh57 routing_veh57 fcd_veh57" vType="veh_passenger" speedFactor="0.97" vaporized=""/>
    <tripinfo id="veh10" depart="23.00" departLane="5019322#3_0" departPos="0.27" departSpeed="0.00" departDelay="0.26" arrival="240.00" arrivalLane="155295971_0" arrivalPos="351.90" arrivalSpeed="8.52" duration="217.00" routeLength="2155.70" waitingTime="3.00" waitingCount="2" stopTime="0.00" timeLoss="29.42" rerouteNo="1" devices="tripinfo_veh10 routing_veh10 fcd_veh10" vType="veh_passenger" speedFactor="1.05" vaporized=""/>
    <tripinfo id="veh29" depart="66.00" departLane="-1259294537_0" departPos="5.10" departSpeed="9.62" departDelay="0.06" arrival="240.00" arrivalLane="-172917699#2_0" arrivalPos="49.53" arrivalSpeed="8.59" duration="174.00" routeLength="1695.57" waitingTime="0.00" waitingCount="0" stopTime="0.00" timeLoss="35.80" rerouteNo="1" devices="tripinfo_veh29 routing_veh29 fcd_veh29" vType="veh_passenger" speedFactor="1.15" vaporized=""/>
    <tripinfo id="veh18" depart="41.00" departLane="522486265#2_1" departPos="5.10" departSpeed="0.00" departDelay="0.07" arrival="245.00" arrivalLane="1111578984#0_0" arrivalPos="92.14" arrivalSpeed="7.61" duration="204.00" routeLength="1372.53" waitingTime="59.00" waitingCount="2" stopTime="0.00" timeLoss="85.58" rerouteNo="1" devices="tripinfo_veh18 routing_veh18 fcd_veh18" vType="veh_passenger" speedFactor="1.02" vaporized=""/>
    <tripinfo id="bus3" depart="21.00" departLane="-172917702_0" departPos="12.10" departSpeed="8.33" departDelay="0.54" arrival="249.00" arrivalLane="13685264#5_0" arrivalPos="64.48" arrivalSpeed="8.16" duration="228.00" routeLength="2260.53" waitingTime="3.00" waitingCount="1" stopTime="0.00" timeLoss="32.13" rerouteNo="1" devices="tripinfo_bus3 routing_bus3 fcd_bus3" vType="bus_bus" speedFactor="1.00" vaporized=""/>
    <tripinfo id="bus14" depart="96.00" departLane="515102854#2_0" departPos="0.20" departSpeed="0.00" departDelay="0.50" arrival="249.00" arrivalLane="13686709#0_0" arrivalPos="160.82" arrivalSpeed="7.76" duration="153.00" routeLength="1607.47" waitingTime="0.00" waitingCount="0" stopTime="0.00" timeLoss="23.38" rerouteNo="1" devices="tripinfo_bus14 routing_bus14 fcd_bus14" vType="bus_bus" speedFactor="1.00" vaporized=""/>
    <tripinfo id="veh51" depart="116.00" departLane="-172917708_0" departPos="5.10" departSpeed="9.13" departDelay="0.04" arrival="251.00" arrivalLane="1259294537_0" arrivalPos="26.35" arrivalSpeed="7.97" duration="135.00" routeLength="1147.31" waitingTime="3.00" waitingCount="1" stopTime="0.00" timeLoss="29.69" rerouteNo="1" devices="tripinfo_veh51 routing_veh51 fcd_veh51" vType="veh_passenger" speedFactor="1.10" vaporized=""/>
    <tripinfo id="truck29" depart="99.00" departLane="513676641_0" departPos="7.20" departSpeed="0.00" departDelay="0.09" arrival="253.00" arrivalLane="1439354539_0" arrivalPos="235.72" arrivalSpeed="13.88" duration="154.00" routeLength="1944.26" waitingTime="0.00" waitingCount="0" stopTime="0.00" timeLoss="20.57" rerouteNo="1" devices="tripinfo_truck29 routing_truck29 fcd_truck29" vType="truck_truck" speedFactor="1.04" vaporized=""/>
    <tripinfo id="veh17" depart="39.00" departLane="153007489#0_0" departPos="5.10" departSpeed="9.65" departDelay="0.35" arrival="256.00" arrivalLane="448565623#2_0" arrivalPos="58.10" arrivalSpeed="9.42" duration="217.00" routeLength="2822.34" waitingTime="0.00" waitingCount="0" stopTime="0.00" timeLoss="20.08" rerouteNo="1" devices="tripinfo_veh17 routing_veh17 fcd_veh17" vType="veh_passenger" speedFactor="1.16" vaporized=""/>
    <tripinfo id="veh21" depart="48.00" departLane="510503533#0_1" departPos="5.10" departSpeed="12.36" departDelay="0.25" arrival="258.00" arrivalLane="-13685166_0" arrivalPos="55.09" arrivalSpeed="7.03" duration="210.00" routeLength="1596.45" waitingTime="6.00" waitingCount="1" stopTime="0.00" timeLoss="27.16" rerouteNo="1" devices="tripinfo_veh21 routing_veh21 fcd_veh21" vType="veh_passenger" speedFactor="0.89" vaporized=""/>
    <tripinfo id="truck35" depart="120.00" departLane="13506243#0_0" departPos="7.20" departSpeed="14.95" departDelay="0.63" arrival="258.00" arrivalLane="514981229#1_1" arrivalPos="182.60" arrivalSpeed="14.42" duration="138.00" routeLength="1733.73" waitingTime="0.00" waitingCount="0" stopTime="0.00" timeLoss="7.98" rerouteNo="1" devices="tripinfo_truck35 routing_truck35 fcd_truck35" vType="truck_truck" speedFactor="1.08" vaporized=""/>
    <tripinfo id="veh11" depart="26.00" departLane="1259280539_0" departPos="5.10" departSpeed="9.35" departDelay="0.99" arrival="261.00" arrivalLane="1439354539_0" arrivalPos="235.72" arrivalSpeed="14.67" duration="235.00" routeLength="3163.68" waitingTime="0.00" waitingCount="0" stopTime="0.00" timeLoss="27.90" rerouteNo="1" devices="tripinfo_veh11 routing_veh11 fcd_veh11" vType="veh_passenger" speedFactor="1.12" vaporized=""/>
    <tripinfo id="veh37" depart="85.00" departLane="1230759208#0_0" departPos="5.10" departSpeed="7.50" departDelay="0.87" arrival="264.00" arrivalLane="525451184#0_0" arrivalPos="47.48" arrivalSpeed="7.25" duration="179.00" routeLength="1867.10" waitingTime="0.00" waitingCount="0" stopTime="0.00" timeLoss="16.15" rerouteNo="1" devices="tripinfo_veh37 routing_veh37 fcd_veh37" vType="veh_passenger" speedFactor="0.90" vaporized=""/>
    <tripinfo id="bus0" depart="0.00" departLane="1429856612_0" departPos="3.55" departSpeed="0.00" departDelay="0.00" arrival="266.00" arrivalLane="-12209187#13_0" arrivalPos="425.48" arrivalSpeed="7.76" duration="266.00" routeLength="1701.54" waitingTime="87.00" waitingCount="4" stopTime="0.00" timeLoss="120.05" rerouteNo="1" devices="tripinfo_bus0 routing_bus0 fcd_bus0" vType="bus_bus" speedFactor="1.00" vaporized=""/>
    <tripinfo id="truck33" depart="113.00" departLane="514429104#2_0" departPos="7.20" departSpeed="0.00" departDelay="0.45" arrival="267.00" arrivalLane="513672305_0" arrivalPos="8.18" arrivalSpeed="9.45" duration="154.00" routeLength="1715.49" waitingTime="0.00" waitingCount="0" stopTime="0.00" timeLoss="23.72" rerouteNo="1" devices="tripinfo_truck33 routing_truck33 fcd_truck33" vType="truck_truck" speedFactor="1.01" vaporized=""/>
    <tripinfo id="bus24" depart="164.00" departLane="13685772#0_0" departPos="12.10" departSpeed="8.33" departDelay="0.29" arrival="274.00" arrivalLane="318612424#1_1" arrivalPos="256.52" arrivalSpeed="13.70" duration="110.00" routeLength="1207.41" waitingTime="0.00" waitingCount="0" stopTime="0.00" timeLoss="10.53" rerouteNo="1" devices="tripinfo_bus24 routing_bus24 fcd_bus24" vType="bus_bus" speedFactor="1.00" vaporized=""/>
    <tripinfo id="veh6" depart="14.00" departLane="112738214#0_0" departPos="5.10" departSpeed="13.03" departDelay="0.36" arrival="274.00" arrivalLane="-362157722#1_0" arrivalPos="18.81" arrivalSpeed="6.95" duration="260.00" routeLength="2708.78" waitingTime="0.00" waitingCount="0" stopTime="0.00" timeLoss="22.59" rerouteNo="1" devices="tripinfo_veh6 routing_veh6 fcd_veh6" vType="veh_passenger" speedFactor="0.94" vaporized=""/>
    <tripinfo id="veh30" depart="69.00" departLane="-13686591#3_0" departPos="5.10" departSpeed="0.00" departDelay="0.79" arrival="275.00" arrivalLane="511770526#0_0" arrivalPos="16.02" arrivalSpeed="11.34" duration="206.00" routeLength="2231.93" waitingTime="9.00" waitingCount="1" stopTime="0.00" timeLoss="33.12" rerouteNo="1" devices="tripinfo_veh30 routing_veh30 fcd_veh30" vType="veh_passenger" speedFactor="1.01" vaporized=""/>
    <tripinfo id="truck4" depart="14.00" departLane="320093192#2_0" departPos="7.20" departSpeed="0.00" departDelay="0.36" arrival="276.00" arrivalLane="-825933452_0" arrivalPos="59.17" arrivalSpeed="8.34" duration="262.00" routeLength="3064.34" waitingTime="2.00" waitingCount="1" stopTime="0.00" timeLoss="35.40" rerouteNo="1" devices="tripinfo_truck4 routing_truck4 fcd_truck4" vType="truck_truck" speedFactor="1.05" vaporized=""/>
    <tripinfo id="veh2" depart="5.00" departLane="345891993#0_0" departPos="5.10" departSpeed="0.00" departDelay="0.45" arrival="277.00" arrivalLane="448692882_0" arrivalPos="134.56" arrivalSpeed="7.74" duration="272.00" routeLength="2701.41" waitingTime="17.00" waitingCount="3" stopTime="0.00" timeLoss="54.43" rerouteNo="1" devices="tripinfo_veh2 routing_veh2 fcd_veh2" vType="veh_passenger" speedFactor="1.03" vaporized=""/>
    <tripinfo id="veh23" depart="53.00" departLane="-170825560_0" departPos="5.10" departSpeed="7.27" departDelay="0.70" arrival="277.00" arrivalLane="155295973#0_0" arrivalPos="250.16" arrivalSpeed="6.33" duration="224.00" routeLength="1466.09" waitingTime="0.00" waitingCount="0" stopTime="0.00" timeLoss="21.35" rerouteNo="1" devices="tripinfo_veh23 routing_veh23 fcd_veh23" vType="veh_passenger" speedFactor="0.87" vaporized=""/>
    <tripinfo id="truck2" depart="7.00" departLane="-13685573#0_0" departPos="7.20" departSpeed="0.00" departDelay="0.18" arrival="281.00" arrivalLane="-11662794#0_0" arrivalPos="25.87" arrivalSpeed="7.35" duration="274.00" routeLength="2569.32" waitingTime="4.00" waitingCount="1" stopTime="0.00" timeLoss="33.54" rerouteNo="1" devices="tripinfo_truck2 routing_truck2 fcd_truck2" vType="truck_truck" speedFactor="0.92" vaporized=""/>
    <tripinfo id="veh62" depart="141.00" departLane="13686308_0" departPos="5.10" departSpeed="0.00" departDelay="0.03" arrival="283.00" arrivalLane="345891993#0_0" arrivalPos="35.58" arrivalSpeed="10.77" duration="142.00" routeLength="1205.53" waitingTime="0.00" waitingCount="0" stopTime="0.00" timeLoss="15.94" rerouteNo="1" devices="tripinfo_veh62 routing_veh62 fcd_veh62" vType="veh_passenger" speedFactor="0.94" vaporized=""/>
    <tripinfo id="veh78" depart="178.00" departLane="447728026#3_0" departPos="5.10" departSpeed="0.00" departDelay="0.65" arrival="287.00" arrivalLane="13685647#1_0" arrivalPos="106.98" arrivalSpeed="8.06" duration="109.00" routeLength="962.89" waitingTime="0.00" waitingCount="0" stopTime="0.00" timeLoss="15.84" rerouteNo="1" devices="tripinfo_veh78 routing_veh78 fcd_veh78" vType="veh_passenger" speedFactor="1.03" vaporized=""/>
    <tripinfo id="veh50" depart="114.00" departLane="-637255958#1_0" departPos="5.10" departSpeed="14.12" departDelay="0.31" arrival="288.00" arrivalLane="666552969_0" arrivalPos="0.20" arrivalSpeed="4.92" duration="174.00" routeLength="1168.91" waitingTime="59.00" waitingCount="2" stopTime="0.00" timeLoss="80.61" rerouteNo="1" devices="tripinfo_veh50 routing_veh50 fcd_veh50" vType="veh_passenger" speedFactor="1.02" vaporized=""/>
    <tripinfo id="veh81" depart="185.00" departLane="-514981268#5_0" departPos="5.10" departSpeed="0.00" departDelay="0.83" arrival="288.00" arrivalLane="1259199236_0" arrivalPos="89.73" arrivalSpeed="13.02" duration="103.00" routeLength="915.48" waitingTime="0.00" waitingCount="0" stopTime="0.00" timeLoss="11.25" rerouteNo="1" devices="tripinfo_veh81 routing_veh81 fcd_veh81" vType="veh_passenger" speedFactor="0.97" vaporized=""/>
    <tripinfo id="bus11" depart="76.00" departLane="13685497#1_0" departPos="12.10" departSpeed="0.00" departDelay="0.97" arrival="289.00" arrivalLane="637206315#1_0" arrivalPos="47.98" arrivalSpeed="7.86" duration="213.00" routeLength="1974.41" waitingTime="21.00" waitingCount="1" stopTime="0.00" timeLoss="46.67" rerouteNo="1" devices="tripinfo_bus11 routing_bus11 fcd_bus11" vType="bus_bus" speedFactor="1.00" vaporized=""/>
    <tripinfo id="truck36" depart="125.00" departLane="1259152788#0_0" departPos="7.20" departSpeed="0.00" departDelay="2.22" arrival="292.00" arrivalLane="-524604557#1_0" arrivalPos="31.24" arrivalSpeed="8.01" duration="167.00" routeLength="1869.87" waitingTime="0.00" waitingCount="0" stopTime="0.00" timeLoss="26.12" rerouteNo="1" devices="tripinfo_truck36 routing_truck36 fcd_truck36" vType="truck_truck" speedFactor="1.02" vaporized=""/>
    <tripinfo id="truck31" depart="106.00" departLane="-408573196#3_0" departPos="7.20" departSpeed="0.00" departDelay="0.27" arrival="294.00" arrivalLane="-1118306629#1_0" arrivalPos="19.27" arrivalSpeed="8.37" duration="188.00" routeLength="1514.21" waitingTime="0.00" waitingCount="0" stopTime="0.00" timeLoss="19.93" rerouteNo="1" devices="tripinfo_truck31 routing_truck31 fcd_truck31" vType="truck_truck" speedFactor="1.05" vaporized=""/>
    <tripinfo id="veh68" depart="155.00" departLane="320093195_0" departPos="5.10" departSpeed="0.00" departDelay="0.39" arrival="295.00" arrivalLane="1071928616#0_0" arrivalPos="61.45" arrivalSpeed="13.39" duration="140.00" routeLength="1575.46" waitingTime="0.00" waitingCount="0" stopTime="0.00" timeLoss="17.26" rerouteNo="1" devices="tripinfo_veh68 routing_veh68 fcd_veh68" vType="veh_passenger" speedFactor="1.02" vaporized=""/>
    <tripinfo id="veh40" depart="91.00" departLane="447724481_1" departPos="3.94" departSpeed="0.00" departDelay="0.05" arrival="298.00" arrivalLane="-13686358#2_0" arrivalPos="48.45" arrivalSpeed="8.85" duration="207.00" routeLength="2436.87" waitingTime="12.00" waitingCount="2" stopTime="0.00" timeLoss="38.44" rerouteNo="1" devices="tripinfo_veh40 routing_veh40 fcd_veh40" vType="veh_passenger" speedFactor="1.09" vaporized=""/>
    <tripinfo id="truck11" depart="38.00" departLane="-320093194#1_0" departPos="7.20" departSpeed="0.00" departDelay="0.48" arrival="298.00" arrivalLane="-13506243#0_0" arrivalPos="1159.86" arrivalSpeed="13.49" duration="260.00" routeLength="2734.84" waitingTime="0.00" waitingCount="0" stopTime="0.00" timeLoss="17.24" rerouteNo="1" devices="tripinfo_truck11 routing_truck11 fcd_truck11" vType="truck_truck" speedFactor="0.98" vaporized=""/>
    <tripinfo id="truck27" depart="93.00" departLane="13687514#2_0" departPos="7.20" departSpeed="0.00" departDelay="0.91" arrival="298.00" arrivalLane="-13686358#4_0" arrivalPos="64.12" arrivalSpeed="8.03" duration="205.00" routeLength="2090.91" waitingTime="4.00" waitingCount="1" stopTime="0.00" timeLoss="42.67" rerouteNo="1" devices="tripinfo_truck27 routing_truck27 fcd_truck27" vType="truck_truck" speedFactor="1.00" vaporized=""/>
    <tripinfo id="truck58" depart="198.00" departLane="-448692882_0" departPos="7.20" departSpeed="8.19" departDelay="0.19" arrival="300.00" arrivalLane="-13686500#0_0" arrivalPos="49.85" arrivalSpeed="13.29" duration="102.00" routeLength="1070.48" waitingTime="0.00" waitingCount="0" stopTime="0.00" timeLoss="14.99" rerouteNo="1" devices="tripinfo_truck58 routing_truck58 fcd_truck58" vType="truck_truck" speedFactor="0.98" vaporized=""/>
    <tripinfo id="bus8" depart="55.00" departLane="583364994#0_0" departPos="12.10" departSpeed="8.33" departDelay="0.43" arrival="301.00" arrivalLane="1071928616#0_0" arrivalPos="61.45" arrivalSpeed="13.55" duration="246.00" routeLength="2433.24" waitingTime="0.00" waitingCount="0" stopTime="0.00" timeLoss="18.15" rerouteNo="1" devices="tripinfo_bus8 routing_bus8 fcd_bus8" vType="bus_bus" speedFactor="1.00" vaporized=""/>
    <tripinfo id="bus29" depart="198.00" departLane="524500955_1" departPos="12.10" departSpeed="13.89" departDelay="0.19" arrival="301.00" arrivalLane="125989143#0_0" arrivalPos="78.86" arrivalSpeed="12.74" duration="103.00" routeLength="1016.28" waitingTime="7.00" waitingCount="2" stopTime="0.00" timeLoss="27.70" rerouteNo="1" devices="tripinfo_bus29 routing_bus29 fcd_bus29" vType="bus_bus" speedFactor="1.00" vaporized=""/>
    <tripinfo id="truck26" depart="92.00" departLane="11521261_0" departPos="7.20" departSpeed="0.00" departDelay="3.32" arrival="301.00" arrivalLane="-13506243#0_0" arrivalPos="1159.86" arrivalSpeed="15.11" duration="209.00" routeLength="2649.55" waitingTime="0.00" waitingCount="0" stopTime="0.00" timeLoss="19.97" rerouteNo="1" devices="tripinfo_truck26 routing_truck26 fcd_truck26" vType="truck_truck" speedFactor="1.09" vaporized=""/>
    <tripinfo id="bus34" depart="232.00" departLane="-13685443#6_0" departPos="12.10" departSpeed="0.00" departDelay="0.08" arrival="302.00" arrivalLane="153007489#3_0" arrivalPos="139.51" arrivalSpeed="7.83" duration="70.00" routeLength="682.52" waitingTime="0.00" waitingCount="0" stopTime="0.00" timeLoss="11.72" rerouteNo="1" devices="tripinfo_bus34 routing_bus34 fcd_bus34" vType="bus_bus" speedFactor="1.00" vaporized=""/>
    <tripinfo id="veh100" depart="228.00" departLane="-13686591#3_0" departPos="5.10" departSpeed="0.00" departDelay="0.63" arrival="302.00" arrivalLane="345891993#1_0" arrivalPos="27.53" arrivalSpeed="11.18" duration="74.00" routeLength="667.67" waitingTime="0.00" waitingCount="0" stopTime="0.00" timeLoss="11.55" rerouteNo="1" devices="tripinfo_veh100 routing_veh100 fcd_veh100" vType="veh_passenger" speedFactor="1.08" vaporized=""/>